REMARK SMILES CC(C)C[C@H](N[C@@H](Cc1cncn1Cc1cc(Cl)cc(Cl)c1)C(=O)O)C(=O)O
REMARK SMILES IDX 7 1 8 2 9 3 13 4 12 5 10 6 11 7 14 8 15 9 18 10 17 11 16 12
REMARK SMILES IDX 19 13 20 14 22 15 21 16 6 17 5 19 26 20 27 21 28 22 4 24
REMARK SMILES IDX 2 25 1 26 3 27 23 28 24 29 25 30
REMARK H PARENT 6 18 28 23 25 31
REMARK Flexibility Score: inf
ROOT
ATOM      1  C   UNL     1      40.877   6.027  26.502  1.00  0.00     0.171 C 
ENDROOT
BRANCH   1   2
ATOM      2  C   UNL     1      41.761   6.321  27.736  1.00  0.00     0.086 C 
BRANCH   2   3
ATOM      3  C   UNL     1      43.208   6.180  27.402  1.00  0.00     0.040 A 
ATOM      4  N   UNL     1      44.135   5.427  28.104  1.00  0.00    -0.330 N 
ATOM      5  C   UNL     1      45.294   5.522  27.366  1.00  0.00     0.199 A 
ATOM      6  C   UNL     1      43.889   6.737  26.332  1.00  0.00     0.134 A 
ATOM      7  N   UNL     1      45.176   6.312  26.318  1.00  0.00    -0.245 NA
BRANCH   4   8
ATOM      8  C   UNL     1      43.939   4.558  29.299  1.00  0.00     0.159 C 
BRANCH   8   9
ATOM      9  C   UNL     1      43.913   5.212  30.699  1.00  0.00    -0.025 A 
ATOM     10  Cl  UNL     1      45.551   8.383  32.612  1.00  0.00    -0.084 Cl
ATOM     11  C   UNL     1      44.647   6.939  32.288  1.00  0.00     0.042 A 
ATOM     12  C   UNL     1      44.660   6.369  30.994  1.00  0.00     0.026 A 
ATOM     13  C   UNL     1      43.910   6.366  33.327  1.00  0.00     0.041 A 
ATOM     14  C   UNL     1      43.178   5.207  33.081  1.00  0.00     0.042 A 
ATOM     15  C   UNL     1      43.185   4.627  31.784  1.00  0.00     0.026 A 
ATOM     16  Cl  UNL     1      42.266   4.514  34.394  1.00  0.00    -0.084 Cl
ENDBRANCH   8   9
ENDBRANCH   4   8
ENDBRANCH   2   3
ENDBRANCH   1   2
BRANCH   1  17
ATOM     17  N   UNL     1      39.469   6.328  26.819  1.00  0.00    -0.291 NA
ATOM     18  H   UNL     1      39.356   7.332  26.979  1.00  0.00     0.124 HD
BRANCH  17  19
ATOM     19  C   UNL     1      38.478   5.915  25.794  1.00  0.00     0.165 C 
BRANCH  19  20
ATOM     20  C   UNL     1      38.344   6.910  24.642  1.00  0.00     0.320 C 
ATOM     21  O   UNL     1      38.289   6.597  23.462  1.00  0.00    -0.251 OA
BRANCH  20  22
ATOM     22  O   UNL     1      38.278   8.203  24.986  1.00  0.00    -0.480 OA
ATOM     23  H   UNL     1      38.190   8.668  24.127  1.00  0.00     0.296 HD
ENDBRANCH  20  22
ENDBRANCH  19  20
BRANCH  19  24
ATOM     24  C   UNL     1      37.203   5.565  26.578  1.00  0.00     0.034 C 
BRANCH  24  25
ATOM     25  C   UNL     1      35.829   6.037  26.092  1.00  0.00    -0.015 C 
ATOM     26  C   UNL     1      34.788   5.569  27.117  1.00  0.00     0.007 C 
ATOM     27  C   UNL     1      35.434   5.489  24.726  1.00  0.00     0.007 C 
ENDBRANCH  24  25
ENDBRANCH  19  24
ENDBRANCH  17  19
ENDBRANCH   1  17
BRANCH   1  28
ATOM     28  C   UNL     1      41.117   4.589  26.028  1.00  0.00     0.321 C 
ATOM     29  O   UNL     1      41.430   4.292  24.884  1.00  0.00    -0.251 OA
BRANCH  28  30
ATOM     30  O   UNL     1      40.932   3.619  26.935  1.00  0.00    -0.480 OA
ATOM     31  H   UNL     1      41.076   2.800  26.416  1.00  0.00     0.296 HD
ENDBRANCH  28  30
ENDBRANCH   1  28
TORSDOF 12
