BEGIN_RES ARG A 273
REMARK  4 active torsions:
REMARK  status: ('A' for Active; 'I' for Inactive)
REMARK    1  A    between atoms: CA   and  CB  
REMARK    2  A    between atoms: CB   and  CG  
REMARK    3  A    between atoms: CG   and  CD  
REMARK    4  A    between atoms: CD   and  NE  
REMARK       I    between atoms: NE   and  CZ  
REMARK       I    between atoms: CZ   and  NH2 
REMARK       I    between atoms: CZ   and  NH1 
ROOT
ATOM      1  CA  ARG A 273      46.966  -3.503  25.805  1.00 42.23     0.176 C 
ENDROOT
BRANCH   1   2
ATOM      2  CB  ARG A 273      45.779  -2.687  26.298  1.00 41.72     0.036 C 
BRANCH   2   3
ATOM      3  CG  ARG A 273      45.215  -1.744  25.252  1.00 39.49     0.023 C 
BRANCH   3   4
ATOM      4  CD  ARG A 273      43.880  -1.127  25.629  1.00 33.82     0.138 C 
BRANCH   4   5
ATOM      5  NE  ARG A 273      43.636   0.007  24.753  1.00 38.69    -0.227 N 
ATOM      6  CZ  ARG A 273      42.827   1.019  25.032  1.00 38.57     0.665 C 
ATOM      7  NH2 ARG A 273      42.157   1.036  26.170  1.00 37.80    -0.235 N 
ATOM      8  NH1 ARG A 273      42.691   2.012  24.168  1.00 35.46    -0.235 N 
ATOM      9 1HH2 ARG A 273      42.262   0.271  26.836  1.00  0.00     0.174 HD
ATOM     10 2HH2 ARG A 273      41.534   1.815  26.385  1.00  0.00     0.174 HD
ATOM     11 1HH1 ARG A 273      43.208   1.999  23.289  1.00  0.00     0.174 HD
ATOM     12 2HH1 ARG A 273      42.068   2.791  24.383  1.00  0.00     0.174 HD
ATOM     13  HE  ARG A 273      44.124   0.025  23.857  1.00  0.00     0.177 HD
ENDBRANCH   4   5
ENDBRANCH   3   4
ENDBRANCH   2   3
ENDBRANCH   1   2
END_RES ARG A 273
